<?xml version="1.0" encoding="UTF-8"?>

<!-- generated on Wed Apr 29 20:10:11 2015 by SUMO sumo Version 0.19.0
<?xml version="1.0" encoding="UTF-8"?>

<configuration xmlns:xsi="http://www.w3.org/2001/XMLSchema-instance" xsi:noNamespaceSchemaLocation="http://sumo-sim.org/xsd/sumoConfiguration.xsd">

    <input>
        <net-file value="circular.net.xml"/>
        <route-files value="MY_rou.xml"/>
        <additional-files value="circular.add.xml"/>
    </input>

    <output>
        <netstate-dump value="dump.xml"/>
        <fcd-output value="FCD.xml"/>
        <save-state.prefix value="state"/>
    </output>

    <time>
        <begin value="0"/>
        <end value="500"/>
    </time>

    <gui_only>
        <gui-settings-file value="circular.settings.xml"/>
    </gui_only>

</configuration>
-->

<fcd-export>
    <timestep time="0.00">
        <vehicle id="type0.0" x="0.60" y="-4.95" angle="90.00" type="car" speed="0.00" pos="0.60" lane="1to2_0" slope="0.00"/>
    </timestep>
    <timestep time="1.00">
        <vehicle id="type0.0" x="0.75" y="-4.95" angle="90.00" type="car" speed="0.15" pos="0.75" lane="1to2_0" slope="0.00"/>
    </timestep>
    <timestep time="2.00">
        <vehicle id="type0.0" x="1.01" y="-4.95" angle="90.00" type="car" speed="0.26" pos="1.01" lane="1to2_0" slope="0.00"/>
    </timestep>
    <timestep time="3.00">
        <vehicle id="type0.0" x="1.37" y="-4.95" angle="90.00" type="car" speed="0.37" pos="1.37" lane="1to2_0" slope="0.00"/>
    </timestep>
    <timestep time="4.00">
        <vehicle id="type0.0" x="1.88" y="-4.95" angle="90.00" type="car" speed="0.51" pos="1.88" lane="1to2_0" slope="0.00"/>
    </timestep>
    <timestep time="5.00">
        <vehicle id="type0.0" x="2.49" y="-4.95" angle="90.00" type="car" speed="0.61" pos="2.49" lane="1to2_0" slope="0.00"/>
    </timestep>
    <timestep time="6.00">
        <vehicle id="type0.0" x="3.23" y="-4.95" angle="90.00" type="car" speed="0.74" pos="3.23" lane="1to2_0" slope="0.00"/>
    </timestep>
    <timestep time="7.00">
        <vehicle id="type0.0" x="4.08" y="-4.95" angle="90.00" type="car" speed="0.85" pos="4.08" lane="1to2_0" slope="0.00"/>
        <vehicle id="type1.0" x="0.80" y="-4.95" angle="90.00" type="truck" speed="0.00" pos="0.80" lane="1to2_0" slope="0.00"/>
    </timestep>
    <timestep time="8.00">
        <vehicle id="type0.0" x="5.02" y="-4.95" angle="90.00" type="car" speed="0.95" pos="5.02" lane="1to2_0" slope="0.00"/>
        <vehicle id="type1.0" x="0.83" y="-4.95" angle="90.00" type="truck" speed="0.03" pos="0.83" lane="1to2_0" slope="0.00"/>
    </timestep>
    <timestep time="9.00">
        <vehicle id="type0.0" x="6.08" y="-4.95" angle="90.00" type="car" speed="1.06" pos="6.08" lane="1to2_0" slope="0.00"/>
        <vehicle id="type1.0" x="0.89" y="-4.95" angle="90.00" type="truck" speed="0.06" pos="0.89" lane="1to2_0" slope="0.00"/>
    </timestep>
    <timestep time="10.00">
        <vehicle id="type0.0" x="7.28" y="-4.95" angle="90.00" type="car" speed="1.19" pos="7.28" lane="1to2_0" slope="0.00"/>
        <vehicle id="type1.0" x="0.99" y="-4.95" angle="90.00" type="truck" speed="0.10" pos="0.99" lane="1to2_0" slope="0.00"/>
    </timestep>
    <timestep time="11.00">
        <vehicle id="type0.0" x="8.55" y="-4.95" angle="90.00" type="car" speed="1.28" pos="8.55" lane="1to2_0" slope="0.00"/>
        <vehicle id="type1.0" x="1.12" y="-4.95" angle="90.00" type="truck" speed="0.13" pos="1.12" lane="1to2_0" slope="0.00"/>
    </timestep>
    <timestep time="12.00">
        <vehicle id="type0.0" x="9.93" y="-4.95" angle="90.00" type="car" speed="1.38" pos="9.93" lane="1to2_0" slope="0.00"/>
        <vehicle id="type1.0" x="1.29" y="-4.95" angle="90.00" type="truck" speed="0.17" pos="1.29" lane="1to2_0" slope="0.00"/>
    </timestep>
    <timestep time="13.00">
        <vehicle id="type0.0" x="11.42" y="-4.95" angle="90.00" type="car" speed="1.49" pos="11.42" lane="1to2_0" slope="0.00"/>
        <vehicle id="type1.0" x="1.50" y="-4.95" angle="90.00" type="truck" speed="0.20" pos="1.50" lane="1to2_0" slope="0.00"/>
    </timestep>
    <timestep time="14.00">
        <vehicle id="type0.0" x="13.01" y="-4.95" angle="90.00" type="car" speed="1.59" pos="13.01" lane="1to2_0" slope="0.00"/>
        <vehicle id="type1.0" x="1.72" y="-4.95" angle="90.00" type="truck" speed="0.23" pos="1.72" lane="1to2_0" slope="0.00"/>
    </timestep>
    <timestep time="15.00">
        <vehicle id="type0.0" x="14.69" y="-4.95" angle="90.00" type="car" speed="1.68" pos="14.69" lane="1to2_0" slope="0.00"/>
        <vehicle id="type1.0" x="1.97" y="-4.95" angle="90.00" type="truck" speed="0.25" pos="1.97" lane="1to2_0" slope="0.00"/>
    </timestep>
    <timestep time="16.00">
        <vehicle id="type0.0" x="16.48" y="-4.95" angle="90.00" type="car" speed="1.80" pos="16.48" lane="1to2_0" slope="0.00"/>
        <vehicle id="type1.0" x="2.25" y="-4.95" angle="90.00" type="truck" speed="0.28" pos="2.25" lane="1to2_0" slope="0.00"/>
    </timestep>
    <timestep time="17.00">
        <vehicle id="type0.0" x="18.41" y="-4.95" angle="90.00" type="car" speed="1.93" pos="18.41" lane="1to2_0" slope="0.00"/>
        <vehicle id="type1.0" x="2.56" y="-4.95" angle="90.00" type="truck" speed="0.32" pos="2.56" lane="1to2_0" slope="0.00"/>
    </timestep>
    <timestep time="18.00">
        <vehicle id="type0.0" x="20.47" y="-4.95" angle="90.00" type="car" speed="2.06" pos="20.47" lane="1to2_0" slope="0.00"/>
        <vehicle id="type1.0" x="2.90" y="-4.95" angle="90.00" type="truck" speed="0.34" pos="2.90" lane="1to2_0" slope="0.00"/>
    </timestep>
    <timestep time="19.00">
        <vehicle id="type0.0" x="22.67" y="-4.95" angle="90.00" type="car" speed="2.20" pos="22.67" lane="1to2_0" slope="0.00"/>
        <vehicle id="type1.0" x="3.27" y="-4.95" angle="90.00" type="truck" speed="0.36" pos="3.27" lane="1to2_0" slope="0.00"/>
    </timestep>
    <timestep time="20.00">
        <vehicle id="type0.0" x="25.01" y="-4.95" angle="90.00" type="car" speed="2.34" pos="25.01" lane="1to2_0" slope="0.00"/>
        <vehicle id="type1.0" x="3.65" y="-4.95" angle="90.00" type="truck" speed="0.39" pos="3.65" lane="1to2_0" slope="0.00"/>
    </timestep>
    <timestep time="21.00">
        <vehicle id="type0.0" x="27.48" y="-4.95" angle="90.00" type="car" speed="2.47" pos="27.48" lane="1to2_0" slope="0.00"/>
        <vehicle id="type0.1" x="0.60" y="-4.95" angle="90.00" type="car" speed="0.00" pos="0.60" lane="1to2_0" slope="0.00"/>
        <vehicle id="type1.0" x="4.08" y="-4.95" angle="90.00" type="truck" speed="0.43" pos="4.08" lane="1to2_0" slope="0.00"/>
    </timestep>
    <timestep time="22.00">
        <vehicle id="type0.0" x="30.03" y="-4.95" angle="90.00" type="car" speed="2.55" pos="30.03" lane="1to2_0" slope="0.00"/>
        <vehicle id="type0.1" x="0.73" y="-4.95" angle="90.00" type="car" speed="0.13" pos="0.73" lane="1to2_0" slope="0.00"/>
        <vehicle id="type1.0" x="4.54" y="-4.95" angle="90.00" type="truck" speed="0.46" pos="4.54" lane="1to2_0" slope="0.00"/>
    </timestep>
    <timestep time="23.00">
        <vehicle id="type0.0" x="32.71" y="-4.95" angle="90.00" type="car" speed="2.68" pos="32.71" lane="1to2_0" slope="0.00"/>
        <vehicle id="type0.1" x="0.88" y="-4.95" angle="90.00" type="car" speed="0.15" pos="0.88" lane="1to2_0" slope="0.00"/>
        <vehicle id="type1.0" x="5.03" y="-4.95" angle="90.00" type="truck" speed="0.49" pos="5.03" lane="1to2_0" slope="0.00"/>
    </timestep>
    <timestep time="24.00">
        <vehicle id="type0.0" x="35.48" y="-4.95" angle="90.00" type="car" speed="2.77" pos="35.48" lane="1to2_0" slope="0.00"/>
        <vehicle id="type0.1" x="1.13" y="-4.95" angle="90.00" type="car" speed="0.25" pos="1.13" lane="1to2_0" slope="0.00"/>
        <vehicle id="type1.0" x="5.56" y="-4.95" angle="90.00" type="truck" speed="0.53" pos="5.56" lane="1to2_0" slope="0.00"/>
    </timestep>
    <timestep time="25.00">
        <vehicle id="type0.0" x="38.35" y="-4.95" angle="90.00" type="car" speed="2.87" pos="38.35" lane="1to2_0" slope="0.00"/>
        <vehicle id="type0.1" x="1.47" y="-4.95" angle="90.00" type="car" speed="0.35" pos="1.47" lane="1to2_0" slope="0.00"/>
        <vehicle id="type1.0" x="6.11" y="-4.95" angle="90.00" type="truck" speed="0.56" pos="6.11" lane="1to2_0" slope="0.00"/>
    </timestep>
    <timestep time="26.00">
        <vehicle id="type0.0" x="41.30" y="-4.95" angle="90.00" type="car" speed="2.95" pos="41.30" lane="1to2_0" slope="0.00"/>
        <vehicle id="type0.1" x="1.95" y="-4.95" angle="90.00" type="car" speed="0.47" pos="1.95" lane="1to2_0" slope="0.00"/>
        <vehicle id="type1.0" x="6.69" y="-4.95" angle="90.00" type="truck" speed="0.58" pos="6.69" lane="1to2_0" slope="0.00"/>
    </timestep>
    <timestep time="27.00">
        <vehicle id="type0.0" x="44.37" y="-4.95" angle="90.00" type="car" speed="3.06" pos="44.37" lane="1to2_0" slope="0.00"/>
        <vehicle id="type0.1" x="2.56" y="-4.95" angle="90.00" type="car" speed="0.61" pos="2.56" lane="1to2_0" slope="0.00"/>
        <vehicle id="type1.0" x="7.29" y="-4.95" angle="90.00" type="truck" speed="0.60" pos="7.29" lane="1to2_0" slope="0.00"/>
    </timestep>
    <timestep time="28.00">
        <vehicle id="type0.0" x="47.51" y="-4.95" angle="90.00" type="car" speed="3.14" pos="47.51" lane="1to2_0" slope="0.00"/>
        <vehicle id="type0.1" x="3.27" y="-4.95" angle="90.00" type="car" speed="0.71" pos="3.27" lane="1to2_0" slope="0.00"/>
        <vehicle id="type1.0" x="7.94" y="-4.95" angle="90.00" type="truck" speed="0.64" pos="7.94" lane="1to2_0" slope="0.00"/>
    </timestep>
    <timestep time="29.00">
        <vehicle id="type0.0" x="50.79" y="-4.95" angle="90.00" type="car" speed="3.28" pos="50.79" lane="1to2_0" slope="0.00"/>
        <vehicle id="type0.1" x="4.04" y="-4.95" angle="90.00" type="car" speed="0.77" pos="4.04" lane="1to2_0" slope="0.00"/>
        <vehicle id="type1.0" x="8.62" y="-4.95" angle="90.00" type="truck" speed="0.68" pos="8.62" lane="1to2_0" slope="0.00"/>
        <vehicle id="type1.1" x="0.80" y="-4.95" angle="90.00" type="truck" speed="0.00" pos="0.80" lane="1to2_0" slope="0.00"/>
    </timestep>
    <timestep time="30.00">
        <vehicle id="type0.0" x="54.21" y="-4.95" angle="90.00" type="car" speed="3.42" pos="54.21" lane="1to2_0" slope="0.00"/>
        <vehicle id="type0.1" x="4.74" y="-4.95" angle="90.00" type="car" speed="0.70" pos="4.74" lane="1to2_0" slope="0.00"/>
        <vehicle id="type1.0" x="9.33" y="-4.95" angle="90.00" type="truck" speed="0.72" pos="9.33" lane="1to2_0" slope="0.00"/>
        <vehicle id="type1.1" x="0.83" y="-4.95" angle="90.00" type="truck" speed="0.03" pos="0.83" lane="1to2_0" slope="0.00"/>
    </timestep>
    <timestep time="31.00">
        <vehicle id="type0.0" x="57.76" y="-4.95" angle="90.00" type="car" speed="3.55" pos="57.76" lane="1to2_0" slope="0.00"/>
        <vehicle id="type0.1" x="5.50" y="-4.95" angle="90.00" type="car" speed="0.75" pos="5.50" lane="1to2_0" slope="0.00"/>
        <vehicle id="type1.0" x="10.09" y="-4.95" angle="90.00" type="truck" speed="0.76" pos="10.09" lane="1to2_0" slope="0.00"/>
        <vehicle id="type1.1" x="0.90" y="-4.95" angle="90.00" type="truck" speed="0.07" pos="0.90" lane="1to2_0" slope="0.00"/>
    </timestep>
    <timestep time="32.00">
        <vehicle id="type0.0" x="61.44" y="-4.95" angle="90.00" type="car" speed="3.69" pos="61.44" lane="1to2_0" slope="0.00"/>
        <vehicle id="type0.1" x="6.31" y="-4.95" angle="90.00" type="car" speed="0.81" pos="6.31" lane="1to2_0" slope="0.00"/>
        <vehicle id="type1.0" x="10.88" y="-4.95" angle="90.00" type="truck" speed="0.79" pos="10.88" lane="1to2_0" slope="0.00"/>
        <vehicle id="type1.1" x="1.00" y="-4.95" angle="90.00" type="truck" speed="0.10" pos="1.00" lane="1to2_0" slope="0.00"/>
    </timestep>
    <timestep time="33.00">
        <vehicle id="type0.0" x="65.25" y="-4.95" angle="90.00" type="car" speed="3.81" pos="65.25" lane="1to2_0" slope="0.00"/>
        <vehicle id="type0.1" x="7.12" y="-4.95" angle="90.00" type="car" speed="0.81" pos="7.12" lane="1to2_0" slope="0.00"/>
        <vehicle id="type1.0" x="11.71" y="-4.95" angle="90.00" type="truck" speed="0.83" pos="11.71" lane="1to2_0" slope="0.00"/>
        <vehicle id="type1.1" x="1.12" y="-4.95" angle="90.00" type="truck" speed="0.12" pos="1.12" lane="1to2_0" slope="0.00"/>
    </timestep>
    <timestep time="34.00">
        <vehicle id="type0.0" x="69.18" y="-4.95" angle="90.00" type="car" speed="3.93" pos="69.18" lane="1to2_0" slope="0.00"/>
        <vehicle id="type0.1" x="7.94" y="-4.95" angle="90.00" type="car" speed="0.83" pos="7.94" lane="1to2_0" slope="0.00"/>
        <vehicle id="type1.0" x="12.57" y="-4.95" angle="90.00" type="truck" speed="0.86" pos="12.57" lane="1to2_0" slope="0.00"/>
        <vehicle id="type1.1" x="1.27" y="-4.95" angle="90.00" type="truck" speed="0.15" pos="1.27" lane="1to2_0" slope="0.00"/>
    </timestep>
    <timestep time="35.00">
        <vehicle id="type0.0" x="73.12" y="-4.95" angle="90.00" type="car" speed="3.94" pos="73.12" lane="1to2_0" slope="0.00"/>
        <vehicle id="type0.1" x="8.80" y="-4.95" angle="90.00" type="car" speed="0.85" pos="8.80" lane="1to2_0" slope="0.00"/>
        <vehicle id="type1.0" x="13.45" y="-4.95" angle="90.00" type="truck" speed="0.88" pos="13.45" lane="1to2_0" slope="0.00"/>
        <vehicle id="type1.1" x="1.46" y="-4.95" angle="90.00" type="truck" speed="0.18" pos="1.46" lane="1to2_0" slope="0.00"/>
    </timestep>
    <timestep time="36.00">
        <vehicle id="type0.0" x="77.05" y="-4.95" angle="90.00" type="car" speed="3.93" pos="77.05" lane="1to2_0" slope="0.00"/>
        <vehicle id="type0.1" x="9.69" y="-4.95" angle="90.00" type="car" speed="0.89" pos="9.69" lane="1to2_0" slope="0.00"/>
        <vehicle id="type1.0" x="14.37" y="-4.95" angle="90.00" type="truck" speed="0.92" pos="14.37" lane="1to2_0" slope="0.00"/>
        <vehicle id="type1.1" x="1.68" y="-4.95" angle="90.00" type="truck" speed="0.22" pos="1.68" lane="1to2_0" slope="0.00"/>
    </timestep>
    <timestep time="37.00">
        <vehicle id="type0.0" x="80.98" y="-4.95" angle="90.00" type="car" speed="3.93" pos="80.98" lane="1to2_0" slope="0.00"/>
        <vehicle id="type0.1" x="10.57" y="-4.95" angle="90.00" type="car" speed="0.88" pos="10.57" lane="1to2_0" slope="0.00"/>
        <vehicle id="type1.0" x="15.33" y="-4.95" angle="90.00" type="truck" speed="0.95" pos="15.33" lane="1to2_0" slope="0.00"/>
        <vehicle id="type1.1" x="1.93" y="-4.95" angle="90.00" type="truck" speed="0.25" pos="1.93" lane="1to2_0" slope="0.00"/>
    </timestep>
    <timestep time="38.00">
        <vehicle id="type0.0" x="84.95" y="-4.95" angle="90.00" type="car" speed="3.97" pos="84.95" lane="1to2_0" slope="0.00"/>
        <vehicle id="type0.1" x="11.52" y="-4.95" angle="90.00" type="car" speed="0.96" pos="11.52" lane="1to2_0" slope="0.00"/>
        <vehicle id="type1.0" x="16.30" y="-4.95" angle="90.00" type="truck" speed="0.98" pos="16.30" lane="1to2_0" slope="0.00"/>
        <vehicle id="type1.1" x="2.20" y="-4.95" angle="90.00" type="truck" speed="0.27" pos="2.20" lane="1to2_0" slope="0.00"/>
    </timestep>
    <timestep time="39.00">
        <vehicle id="type0.0" x="88.90" y="-4.95" angle="90.00" type="car" speed="3.96" pos="88.90" lane="1to2_0" slope="0.00"/>
        <vehicle id="type0.1" x="12.52" y="-1.65" angle="90.00" type="car" speed="0.99" pos="12.52" lane="1to2_1" slope="0.00"/>
        <vehicle id="type1.0" x="17.30" y="-4.95" angle="90.00" type="truck" speed="1.00" pos="17.30" lane="1to2_0" slope="0.00"/>
        <vehicle id="type1.1" x="2.51" y="-4.95" angle="90.00" type="truck" speed="0.31" pos="2.51" lane="1to2_0" slope="0.00"/>
    </timestep>
    <timestep time="40.00">
        <vehicle id="type0.0" x="92.85" y="-4.95" angle="90.00" type="car" speed="3.95" pos="92.85" lane="1to2_0" slope="0.00"/>
        <vehicle id="type0.1" x="13.63" y="-1.65" angle="90.00" type="car" speed="1.12" pos="13.63" lane="1to2_1" slope="0.00"/>
        <vehicle id="type1.0" x="18.34" y="-4.95" angle="90.00" type="truck" speed="1.04" pos="18.34" lane="1to2_0" slope="0.00"/>
        <vehicle id="type1.1" x="2.85" y="-4.95" angle="90.00" type="truck" speed="0.34" pos="2.85" lane="1to2_0" slope="0.00"/>
    </timestep>
    <timestep time="41.00">
        <vehicle id="type0.0" x="96.79" y="-4.95" angle="90.00" type="car" speed="3.94" pos="96.79" lane="1to2_0" slope="0.00"/>
        <vehicle id="type0.1" x="14.85" y="-1.65" angle="90.00" type="car" speed="1.22" pos="14.85" lane="1to2_1" slope="0.00"/>
        <vehicle id="type1.0" x="19.41" y="-4.95" angle="90.00" type="truck" speed="1.07" pos="19.41" lane="1to2_0" slope="0.00"/>
        <vehicle id="type1.1" x="3.21" y="-4.95" angle="90.00" type="truck" speed="0.36" pos="3.21" lane="1to2_0" slope="0.00"/>
    </timestep>
    <timestep time="42.00">
        <vehicle id="type0.0" x="100.74" y="-4.95" angle="90.00" type="car" speed="3.95" pos="100.74" lane="1to2_0" slope="0.00"/>
        <vehicle id="type0.1" x="16.21" y="-1.65" angle="90.00" type="car" speed="1.36" pos="16.21" lane="1to2_1" slope="0.00"/>
        <vehicle id="type1.0" x="20.51" y="-4.95" angle="90.00" type="truck" speed="1.11" pos="20.51" lane="1to2_0" slope="0.00"/>
        <vehicle id="type1.1" x="3.60" y="-4.95" angle="90.00" type="truck" speed="0.39" pos="3.60" lane="1to2_0" slope="0.00"/>
    </timestep>
    <timestep time="43.00">
        <vehicle id="type0.0" x="104.70" y="-4.95" angle="90.00" type="car" speed="3.96" pos="104.70" lane="1to2_0" slope="0.00"/>
        <vehicle id="type0.1" x="17.69" y="-1.65" angle="90.00" type="car" speed="1.48" pos="17.69" lane="1to2_1" slope="0.00"/>
        <vehicle id="type0.2" x="0.60" y="-4.95" angle="90.00" type="car" speed="0.00" pos="0.60" lane="1to2_0" slope="0.00"/>
        <vehicle id="type1.0" x="21.66" y="-4.95" angle="90.00" type="truck" speed="1.15" pos="21.66" lane="1to2_0" slope="0.00"/>
        <vehicle id="type1.1" x="4.01" y="-4.95" angle="90.00" type="truck" speed="0.42" pos="4.01" lane="1to2_0" slope="0.00"/>
    </timestep>
    <timestep time="44.00">
        <vehicle id="type0.0" x="108.69" y="-4.95" angle="90.00" type="car" speed="3.99" pos="108.69" lane="1to2_0" slope="0.00"/>
        <vehicle id="type0.1" x="19.26" y="-1.65" angle="90.00" type="car" speed="1.57" pos="19.26" lane="1to2_1" slope="0.00"/>
        <vehicle id="type0.2" x="0.70" y="-4.95" angle="90.00" type="car" speed="0.10" pos="0.70" lane="1to2_0" slope="0.00"/>
        <vehicle id="type1.0" x="22.83" y="-4.95" angle="90.00" type="truck" speed="1.17" pos="22.83" lane="1to2_0" slope="0.00"/>
        <vehicle id="type1.1" x="4.46" y="-4.95" angle="90.00" type="truck" speed="0.45" pos="4.46" lane="1to2_0" slope="0.00"/>
    </timestep>
    <timestep time="45.00">
        <vehicle id="type0.0" x="112.65" y="-4.95" angle="90.00" type="car" speed="3.96" pos="112.65" lane="1to2_0" slope="0.00"/>
        <vehicle id="type0.1" x="20.94" y="-1.65" angle="90.00" type="car" speed="1.68" pos="20.94" lane="1to2_1" slope="0.00"/>
        <vehicle id="type0.2" x="0.77" y="-4.95" angle="90.00" type="car" speed="0.07" pos="0.77" lane="1to2_0" slope="0.00"/>
        <vehicle id="type1.0" x="24.03" y="-4.95" angle="90.00" type="truck" speed="1.20" pos="24.03" lane="1to2_0" slope="0.00"/>
        <vehicle id="type1.1" x="4.95" y="-4.95" angle="90.00" type="truck" speed="0.48" pos="4.95" lane="1to2_0" slope="0.00"/>
    </timestep>
    <timestep time="46.00">
        <vehicle id="type0.0" x="116.61" y="-4.95" angle="90.00" type="car" speed="3.96" pos="116.61" lane="1to2_0" slope="0.00"/>
        <vehicle id="type0.1" x="22.73" y="-1.65" angle="90.00" type="car" speed="1.79" pos="22.73" lane="1to2_1" slope="0.00"/>
        <vehicle id="type0.2" x="0.94" y="-4.95" angle="90.00" type="car" speed="0.17" pos="0.94" lane="1to2_0" slope="0.00"/>
        <vehicle id="type1.0" x="25.27" y="-4.95" angle="90.00" type="truck" speed="1.24" pos="25.27" lane="1to2_0" slope="0.00"/>
        <vehicle id="type1.1" x="5.45" y="-4.95" angle="90.00" type="truck" speed="0.51" pos="5.45" lane="1to2_0" slope="0.00"/>
    </timestep>
    <timestep time="47.00">
        <vehicle id="type0.0" x="120.53" y="-4.95" angle="90.00" type="car" speed="3.93" pos="120.53" lane="1to2_0" slope="0.00"/>
        <vehicle id="type0.1" x="24.61" y="-1.65" angle="90.00" type="car" speed="1.88" pos="24.61" lane="1to2_1" slope="0.00"/>
        <vehicle id="type0.2" x="1.18" y="-4.95" angle="90.00" type="car" speed="0.25" pos="1.18" lane="1to2_0" slope="0.00"/>
        <vehicle id="type1.0" x="26.54" y="-4.95" angle="90.00" type="truck" speed="1.27" pos="26.54" lane="1to2_0" slope="0.00"/>
        <vehicle id="type1.1" x="6.00" y="-4.95" angle="90.00" type="truck" speed="0.55" pos="6.00" lane="1to2_0" slope="0.00"/>
    </timestep>
    <timestep time="48.00">
        <vehicle id="type0.0" x="124.50" y="-4.95" angle="90.00" type="car" speed="3.96" pos="124.50" lane="1to2_0" slope="0.00"/>
        <vehicle id="type0.1" x="26.57" y="-1.65" angle="90.00" type="car" speed="1.96" pos="26.57" lane="1to2_1" slope="0.00"/>
        <vehicle id="type0.2" x="1.55" y="-4.95" angle="90.00" type="car" speed="0.37" pos="1.55" lane="1to2_0" slope="0.00"/>
        <vehicle id="type1.0" x="27.83" y="-4.95" angle="90.00" type="truck" speed="1.29" pos="27.83" lane="1to2_0" slope="0.00"/>
        <vehicle id="type1.1" x="6.58" y="-4.95" angle="90.00" type="truck" speed="0.58" pos="6.58" lane="1to2_0" slope="0.00"/>
    </timestep>
    <timestep time="49.00">
        <vehicle id="type0.0" x="128.46" y="-4.95" angle="90.00" type="car" speed="3.96" pos="128.46" lane="1to2_0" slope="0.00"/>
        <vehicle id="type0.1" x="28.62" y="-1.65" angle="90.00" type="car" speed="2.05" pos="28.62" lane="1to2_1" slope="0.00"/>
        <vehicle id="type0.2" x="2.02" y="-4.95" angle="90.00" type="car" speed="0.47" pos="2.02" lane="1to2_0" slope="0.00"/>
        <vehicle id="type1.0" x="29.16" y="-4.95" angle="90.00" type="truck" speed="1.32" pos="29.16" lane="1to2_0" slope="0.00"/>
        <vehicle id="type1.1" x="7.20" y="-4.95" angle="90.00" type="truck" speed="0.62" pos="7.20" lane="1to2_0" slope="0.00"/>
    </timestep>
    <timestep time="50.00">
        <vehicle id="type0.0" x="132.46" y="-4.95" angle="90.00" type="car" speed="4.00" pos="132.46" lane="1to2_0" slope="0.00"/>
        <vehicle id="type0.1" x="30.75" y="-1.65" angle="90.00" type="car" speed="2.13" pos="30.75" lane="1to2_1" slope="0.00"/>
        <vehicle id="type0.2" x="2.61" y="-4.95" angle="90.00" type="car" speed="0.59" pos="2.61" lane="1to2_0" slope="0.00"/>
        <vehicle id="type1.0" x="30.51" y="-4.95" angle="90.00" type="truck" speed="1.36" pos="30.51" lane="1to2_0" slope="0.00"/>
        <vehicle id="type1.1" x="7.85" y="-4.95" angle="90.00" type="truck" speed="0.64" pos="7.85" lane="1to2_0" slope="0.00"/>
    </timestep>
    <timestep time="51.00">
        <vehicle id="type0.0" x="136.40" y="-4.95" angle="90.00" type="car" speed="3.94" pos="136.40" lane="1to2_0" slope="0.00"/>
        <vehicle id="type0.1" x="33.03" y="-1.65" angle="90.00" type="car" speed="2.27" pos="33.03" lane="1to2_1" slope="0.00"/>
        <vehicle id="type0.2" x="3.28" y="-4.95" angle="90.00" type="car" speed="0.67" pos="3.28" lane="1to2_0" slope="0.00"/>
        <vehicle id="type1.0" x="31.89" y="-4.95" angle="90.00" type="truck" speed="1.38" pos="31.89" lane="1to2_0" slope="0.00"/>
        <vehicle id="type1.1" x="8.52" y="-4.95" angle="90.00" type="truck" speed="0.68" pos="8.52" lane="1to2_0" slope="0.00"/>
    </timestep>
    <timestep time="52.00">
        <vehicle id="type0.0" x="140.33" y="-4.95" angle="90.00" type="car" speed="3.93" pos="140.33" lane="1to2_0" slope="0.00"/>
        <vehicle id="type0.1" x="35.42" y="-1.65" angle="90.00" type="car" speed="2.39" pos="35.42" lane="1to2_1" slope="0.00"/>
        <vehicle id="type0.2" x="4.03" y="-4.95" angle="90.00" type="car" speed="0.75" pos="4.03" lane="1to2_0" slope="0.00"/>
        <vehicle id="type1.0" x="33.30" y="-4.95" angle="90.00" type="truck" speed="1.40" pos="33.30" lane="1to2_0" slope="0.00"/>
        <vehicle id="type1.1" x="9.23" y="-4.95" angle="90.00" type="truck" speed="0.71" pos="9.23" lane="1to2_0" slope="0.00"/>
        <vehicle id="type1.2" x="0.80" y="-4.95" angle="90.00" type="truck" speed="0.00" pos="0.80" lane="1to2_0" slope="0.00"/>
    </timestep>
    <timestep time="53.00">
        <vehicle id="type0.0" x="144.29" y="-4.95" angle="90.00" type="car" speed="3.97" pos="144.29" lane="1to2_0" slope="0.00"/>
        <vehicle id="type0.1" x="37.94" y="-1.65" angle="90.00" type="car" speed="2.53" pos="37.94" lane="1to2_1" slope="0.00"/>
        <vehicle id="type0.2" x="4.90" y="-4.95" angle="90.00" type="car" speed="0.87" pos="4.90" lane="1to2_0" slope="0.00"/>
        <vehicle id="type1.0" x="34.73" y="-4.95" angle="90.00" type="truck" speed="1.44" pos="34.73" lane="1to2_0" slope="0.00"/>
        <vehicle id="type1.1" x="9.96" y="-4.95" angle="90.00" type="truck" speed="0.73" pos="9.96" lane="1to2_0" slope="0.00"/>
        <vehicle id="type1.2" x="0.80" y="-4.95" angle="90.00" type="truck" speed="0.00" pos="0.80" lane="1to2_0" slope="0.00"/>
    </timestep>
    <timestep time="54.00">
        <vehicle id="type0.0" x="148.28" y="-4.95" angle="90.00" type="car" speed="3.99" pos="148.28" lane="1to2_0" slope="0.00"/>
        <vehicle id="type0.1" x="40.56" y="-1.65" angle="90.00" type="car" speed="2.62" pos="40.56" lane="1to2_1" slope="0.00"/>
        <vehicle id="type0.2" x="5.83" y="-4.95" angle="90.00" type="car" speed="0.93" pos="5.83" lane="1to2_0" slope="0.00"/>
        <vehicle id="type1.0" x="36.20" y="-4.95" angle="90.00" type="truck" speed="1.47" pos="36.20" lane="1to2_0" slope="0.00"/>
        <vehicle id="type1.1" x="10.73" y="-4.95" angle="90.00" type="truck" speed="0.77" pos="10.73" lane="1to2_0" slope="0.00"/>
        <vehicle id="type1.2" x="0.84" y="-4.95" angle="90.00" type="truck" speed="0.04" pos="0.84" lane="1to2_0" slope="0.00"/>
    </timestep>
    <timestep time="55.00">
        <vehicle id="type0.0" x="152.27" y="-4.95" angle="90.00" type="car" speed="3.98" pos="152.27" lane="1to2_0" slope="0.00"/>
        <vehicle id="type0.1" x="43.32" y="-1.65" angle="90.00" type="car" speed="2.76" pos="43.32" lane="1to2_1" slope="0.00"/>
        <vehicle id="type0.2" x="6.71" y="-4.95" angle="90.00" type="car" speed="0.88" pos="6.71" lane="1to2_0" slope="0.00"/>
        <vehicle id="type1.0" x="37.70" y="-4.95" angle="90.00" type="truck" speed="1.50" pos="37.70" lane="1to2_0" slope="0.00"/>
        <vehicle id="type1.1" x="11.54" y="-4.95" angle="90.00" type="truck" speed="0.81" pos="11.54" lane="1to2_0" slope="0.00"/>
        <vehicle id="type1.2" x="0.91" y="-4.95" angle="90.00" type="truck" speed="0.07" pos="0.91" lane="1to2_0" slope="0.00"/>
    </timestep>
    <timestep time="56.00">
        <vehicle id="type0.0" x="156.20" y="-4.95" angle="90.00" type="car" speed="3.94" pos="156.20" lane="1to2_0" slope="0.00"/>
        <vehicle id="type0.1" x="46.21" y="-1.65" angle="90.00" type="car" speed="2.89" pos="46.21" lane="1to2_1" slope="0.00"/>
        <vehicle id="type0.2" x="7.63" y="-4.95" angle="90.00" type="car" speed="0.92" pos="7.63" lane="1to2_0" slope="0.00"/>
        <vehicle id="type1.0" x="39.23" y="-4.95" angle="90.00" type="truck" speed="1.53" pos="39.23" lane="1to2_0" slope="0.00"/>
        <vehicle id="type1.1" x="12.38" y="-4.95" angle="90.00" type="truck" speed="0.84" pos="12.38" lane="1to2_0" slope="0.00"/>
        <vehicle id="type1.2" x="1.00" y="-4.95" angle="90.00" type="truck" speed="0.09" pos="1.00" lane="1to2_0" slope="0.00"/>
    </timestep>
    <timestep time="57.00">
        <vehicle id="type0.0" x="160.13" y="-4.95" angle="90.00" type="car" speed="3.93" pos="160.13" lane="1to2_0" slope="0.00"/>
        <vehicle id="type0.1" x="49.23" y="-1.65" angle="90.00" type="car" speed="3.02" pos="49.23" lane="1to2_1" slope="0.00"/>
        <vehicle id="type0.2" x="8.53" y="-4.95" angle="90.00" type="car" speed="0.90" pos="8.53" lane="1to2_0" slope="0.00"/>
        <vehicle id="type1.0" x="40.79" y="-4.95" angle="90.00" type="truck" speed="1.56" pos="40.79" lane="1to2_0" slope="0.00"/>
        <vehicle id="type1.1" x="13.24" y="-4.95" angle="90.00" type="truck" speed="0.87" pos="13.24" lane="1to2_0" slope="0.00"/>
        <vehicle id="type1.2" x="1.13" y="-4.95" angle="90.00" type="truck" speed="0.13" pos="1.13" lane="1to2_0" slope="0.00"/>
    </timestep>
    <timestep time="58.00">
        <vehicle id="type0.0" x="164.13" y="-4.95" angle="90.00" type="car" speed="4.00" pos="164.13" lane="1to2_0" slope="0.00"/>
        <vehicle id="type0.1" x="52.36" y="-1.65" angle="90.00" type="car" speed="3.13" pos="52.36" lane="1to2_1" slope="0.00"/>
        <vehicle id="type0.2" x="9.40" y="-4.95" angle="90.00" type="car" speed="0.88" pos="9.40" lane="1to2_0" slope="0.00"/>
        <vehicle id="type1.0" x="42.37" y="-4.95" angle="90.00" type="truck" speed="1.58" pos="42.37" lane="1to2_0" slope="0.00"/>
        <vehicle id="type1.1" x="14.14" y="-4.95" angle="90.00" type="truck" speed="0.89" pos="14.14" lane="1to2_0" slope="0.00"/>
        <vehicle id="type1.2" x="1.30" y="-4.95" angle="90.00" type="truck" speed="0.17" pos="1.30" lane="1to2_0" slope="0.00"/>
    </timestep>
    <timestep time="59.00">
        <vehicle id="type0.0" x="168.13" y="-4.95" angle="90.00" type="car" speed="4.00" pos="168.13" lane="1to2_0" slope="0.00"/>
        <vehicle id="type0.1" x="55.61" y="-1.65" angle="90.00" type="car" speed="3.25" pos="55.61" lane="1to2_1" slope="0.00"/>
        <vehicle id="type0.2" x="10.32" y="-4.95" angle="90.00" type="car" speed="0.91" pos="10.32" lane="1to2_0" slope="0.00"/>